[ atomtypes ]
 ;ADDING FOR TIP4P/2005 WATER MODEL
 ;Lennard_jones Parameters sigma and epsilon in last two columns
 ;Added 03/31/2022 by Jonathan Zajac
 OW   8     15.99940     0.0000       A    3.15890e-01  7.74900e-01
 HW   1      1.00790     0.0000       A    0.00000e+00  0.00000e+00
 MW   0      0.00000     0.0000       D    0.00000e+00  0.00000e+00

;ADDING FOR HYDROPHOBIC POLYMER
;Modified 04/20/2022 by Jonathan Zajac
 UA   7	  14.02660     0.000       A    3.73000e-01  5.85600e-01

[ nonbond_params ]
; i	j	func	sigma	epsilon
 OW	UA	1	3.44445e-01	5.93000e-01 ; epsilon = 0.88*epsilon
